 Gaussian 16, Revision A.03,
 Gaussian 16:  ES64L-G16RevA.03 25-Dec-2016

 ---------------------------------------
 # opt freq cis/6-311++g(3df,3pd) scf=qc
 ---------------------------------------

 -------------------
 Title Card Required
 -------------------
 Symbolic Z-matrix:
 Charge =  0 Multiplicity = 1

 SCF Done:  E(RHF) =  -738.351685364     a.u. after    9 cycles
 SCF Done:  E(RHF) =  -738.353995647     a.u. after    3 cycles
 SCF Done:  E(RHF) =  -738.354473147     a.u. after    3 cycles
 SCF Done:  E(RHF) =  -738.354605994     a.u. after    3 cycles
 Optimization completed.
    -- Stationary point found.
 Normal termination of Gaussian 16 at Mon Feb 24 02:19:13 2020.

 ----------------------------------------------------------------------
 #N Geom=AllCheck Guess=TCheck SCRF=Check GenChk RCIS(FC,Read)/6-311++G
 (3df,3pd) Freq
 ----------------------------------------------------------------------

 Structure from the checkpoint file:  "/localscratch/alrebei.28376405.0/Gau-32758.chk"
 -------------------
 Title Card Required
 -------------------
 Charge =  0 Multiplicity = 1

                         Standard orientation:
 ---------------------------------------------------------------------
 Center     Atomic      Atomic             Coordinates (Angstroms)
 Number     Number       Type             X           Y           Z
 ---------------------------------------------------------------------
      1          7           0        1.063858    0.051671   -0.000113
      2          8           0        0.836982    1.206160    0.000188
      3          8           0        2.110992   -0.476176   -0.000179
      4          8           0        0.036162   -0.788183    0.000521
      5         17           0       -1.842358    0.006112   -0.000203
 ---------------------------------------------------------------------

 SCF Done:  E(RHF) =  -738.354605994     a.u. after    1 cycles

 Excitation energies and oscillator strengths:

 Excited State   1:      Singlet-A      2.5687 eV  482.68 nm  f=0.0000  <S**2>=0.000
      22 -> 25         0.68257
      24 -> 25         0.11882
 This state for optimization and/or second-order correction.
 Total Energy, E(CIS/TDA) =  -738.260209745
 Copying the excited state density for this state as the 1-particle RhoCI density.

 Excited State   2:      Singlet-A      2.9310 eV  423.01 nm  f=0.0002  <S**2>=0.000
      21 -> 25         0.65712
      23 -> 25         0.19498

 Excited State   3:      Singlet-A      4.6471 eV  266.80 nm  f=0.0001  <S**2>=0.000
      16 -> 25         0.14109
      19 -> 25         0.67321

 The electronic state is 1-A.
 Alpha  occ. eigenvalues -- -104.96716 -20.73917 -20.63985 -20.63298 -15.94117
 Alpha  occ. eigenvalues --  -10.68445  -8.15195  -8.14819  -8.14814  -1.72995
 Alpha  occ. eigenvalues --   -1.48420  -1.44884  -1.13923  -0.92288  -0.82677
 Alpha  occ. eigenvalues --   -0.82632  -0.78796  -0.61501  -0.61050  -0.56210
 Alpha  occ. eigenvalues --   -0.54090  -0.53176  -0.51066  -0.50123
 Alpha virt. eigenvalues --   -0.07744   0.07619   0.09518   0.10669   0.11406
 Alpha virt. eigenvalues --    0.11452   0.15063   0.15598   0.18711   0.21342
 Alpha virt. eigenvalues --    0.24800   0.26871   0.27407   0.29808   0.31577

 Mulliken charges:
               1
     1  N    1.453161
     2  O   -0.635046
     3  O   -0.682212
     4  O   -0.365943
     5  Cl   0.230040
 Sum of Mulliken charges =   0.00000

 Dipole moment (field-independent basis, Debye):
    X=             -3.0601    Y=             -0.1841    Z=             -0.0008  Tot=              3.0656
 Quadrupole moment (field-independent basis, Debye-Ang):
   XX=            -32.2565   YY=            -36.7812   ZZ=            -32.8961
   XY=             -0.7460   XZ=              0.0014   YZ=             -0.0004

  Exact polarizability:  98.204 -11.873  36.724   0.011  -0.002  23.974
 Approx polarizability:  58.256 -10.474  37.452   0.004  -0.002  24.858

 ******    1 imaginary frequencies (negative Signs) ******

                      1                      2                      3
                      A                      A                      A
 Frequencies --    -60.2337               185.5147               387.8576
 Red. masses --     16.9309                19.6071                20.8601
 Frc consts  --      0.0362                 0.3976                 1.8489
 IR Inten    --      0.2800                 0.9796                34.5969

                      4                      5                      6
                      A                      A                      A
 Frequencies --    766.9384               804.3330               918.6161
 Red. masses --     15.9601                15.9956                14.4094
 Frc consts  --      5.5310                 6.0971                 7.1642
 IR Inten    --      0.1166                 1.4503                22.9375

                      7                      8                      9
                      A                      A                      A
 Frequencies --   1076.3992              1511.6090              1817.2201
 Red. masses --     15.2453                15.1231                14.5743
 Frc consts  --     10.4071                20.3597                28.3564
 IR Inten    --    549.5707               771.3267               541.0927

 - Thermochemistry -
 -------------------
 Temperature   298.150 Kelvin.  Pressure   1.00000 Atm.
 Atom     1 has atomic number  7 and mass  14.00307

 Molecular mass:    96.95667 amu.
 Principal axes and moments of inertia in atomic units:
                           1         2         3
     Eigenvalues --   131.67135 774.96905 906.64035
           X            1.00000   0.00006  -0.00004
           Y           -0.00006   1.00000   0.00005
           Z            0.00004  -0.00005   1.00000
 This molecule is an asymmetric top.
 Rotational symmetry number  1.
 Rotational temperatures (Kelvin)      0.65780     0.11176     0.09553
 Rotational constants (GHZ):          13.70641     2.32879     1.99058
    1 imaginary frequencies ignored.
 Zero-point vibrational energy      44671.5 (Joules/Mol)
                                   10.67674 (Kcal/Mol)
 Warning -- explicit consideration of   2 degrees of freedom as
           vibrations may cause significant error
 Vibrational temperatures:    266.91   558.04  1103.45  1157.26  1321.68
          (Kelvin)           1548.70  2174.87  2614.57

 Zero-point correction=                           0.017014 (Hartree/Particle)
 Thermal correction to Energy=                    0.021001
 Thermal correction to Enthalpy=                  0.021946
 Thermal correction to Gibbs Free Energy=        -0.011117
 Sum of electronic and zero-point Energies=           -738.243195
 Sum of electronic and thermal Energies=              -738.239208
 Sum of electronic and thermal Enthalpies=            -738.238264
 Sum of electronic and thermal Free Energies=         -738.271327

                     E (Thermal)             CV                S
                      KCal/Mol        Cal/Mol-Kelvin    Cal/Mol-Kelvin
 Total                   13.179             11.539             69.587
 Electronic               0.000              0.000              0.000
 Translational            0.889              2.981             39.626
 Rotational               0.889              2.981             26.028
 Vibrational             11.401              5.578              3.933
 Vibration     1          0.632              1.860              2.272
 Vibration     2          0.756              1.496              1.008

 Optimization completed.
    -- Stationary point found.
 Normal termination of Gaussian 16 at Mon Feb 24 02:25:50 2020.
