 Gaussian 16, Revision A.03,
 Gaussian 16:  ES64L-G16RevA.03 25-Dec-2016

 ---------------------------------------
 # opt freq cis/6-311++g(3df,3pd) scf=qc
 ---------------------------------------

 -------------------
 Title Card Required
 -------------------
 Symbolic Z-matrix:
 Charge =  0 Multiplicity = 1

 SCF Done:  E(RHF) =  -738.305892434     a.u. after    9 cycles
 SCF Done:  E(RHF) =  -738.305197282     a.u. after    9 cycles
 SCF Done:  E(RHF) =  -738.304336668     a.u. after    7 cycles
 SCF Done:  E(RHF) =  -738.304080831     a.u. after    3 cycles
 SCF Done:  E(RHF) =  -738.303939908     a.u. after    3 cycles
 SCF Done:  E(RHF) =  -738.303892740     a.u. after    3 cycles
 Optimization completed.
    -- Stationary point found.
 Normal termination of Gaussian 16 at Mon Feb 24 02:26:16 2020.

 ----------------------------------------------------------------------
 #N Geom=AllCheck Guess=TCheck SCRF=Check GenChk RCIS(FC,Read)/6-311++G
 (3df,3pd) Freq
 ----------------------------------------------------------------------

 Structure from the checkpoint file:  "/localscratch/alrebei.28376424.0/Gau-11822.chk"
 -------------------
 Title Card Required
 -------------------
 Charge =  0 Multiplicity = 1

                         Standard orientation:
 ---------------------------------------------------------------------
 Center     Atomic      Atomic             Coordinates (Angstroms)
 Number     Number       Type             X           Y           Z
 ---------------------------------------------------------------------
      1          7           0        1.248987    0.048831    0.000042
      2          8           0        1.175781    1.206813    0.000108
      3          8           0        2.136707   -0.690773   -0.000050
      4          8           0       -0.705808   -0.936215    0.000059
      5         17           0       -1.740962    0.177622   -0.000073
 ---------------------------------------------------------------------

 SCF Done:  E(RHF) =  -738.303892740     a.u. after    1 cycles

 Excitation energies and oscillator strengths:

 Excited State   1:      Singlet-A      1.6509 eV  750.99 nm  f=0.0000  <S**2>=0.000
      18 -> 25        -0.21617
      23 -> 25         0.66424
 This state for optimization and/or second-order correction.
 Total Energy, E(CIS/TDA) =  -738.243222041
 Copying the excited state density for this state as the 1-particle RhoCI density.

 Excited State   2:      Singlet-A      4.3637 eV  284.13 nm  f=0.8379  <S**2>=0.000
      24 -> 25         0.67134

 Excited State   3:      Singlet-A      4.7842 eV  259.15 nm  f=0.0001  <S**2>=0.000
      20 -> 26        -0.11061
      22 -> 25         0.52554
      24 -> 26         0.44628

 The electronic state is 1-A.
 Alpha  occ. eigenvalues -- -104.90997 -20.71958 -20.71417 -20.66802 -15.94064
 Alpha  occ. eigenvalues --  -10.63173  -8.10013  -8.09704  -8.09614  -1.73481
 Alpha  occ. eigenvalues --   -1.54260  -1.44314  -1.02494  -0.94463  -0.84057
 Alpha  occ. eigenvalues --   -0.82339  -0.81993  -0.65299  -0.64865  -0.60091
 Alpha  occ. eigenvalues --   -0.57178  -0.56264  -0.42917  -0.38338
 Alpha virt. eigenvalues --   -0.07022   0.07090   0.08459   0.09174   0.11262
 Alpha virt. eigenvalues --    0.11903   0.13824   0.15373   0.17797   0.21827
 Alpha virt. eigenvalues --    0.23935   0.24284   0.25977   0.27862   0.30709

 Mulliken charges:
               1
     1  N    1.106277
     2  O   -0.497975
     3  O   -0.487449
     4  O   -0.231194
     5  Cl   0.110341
 Sum of Mulliken charges =  -0.00000

 Dipole moment (field-independent basis, Debye):
    X=              0.4645    Y=              0.8838    Z=             -0.0001  Tot=              0.9984
 Quadrupole moment (field-independent basis, Debye-Ang):
   XX=            -32.3661   YY=            -35.7114   ZZ=            -33.0963
   XY=             -0.5627   XZ=              0.0003   YZ=             -0.0002

  Exact polarizability:  96.238   4.056  41.877   0.001   0.000  24.561
 Approx polarizability:  93.848   4.565  48.078   0.001   0.001  25.091

                      1                      2                      3
                      A                      A                      A
 Frequencies --     58.2723               114.3247               188.4711
 Red. masses --     17.5809                19.4831                18.0141
 Frc consts  --      0.0352                 0.1500                 0.3770
 IR Inten    --      1.0062                 0.4476                 0.6751

                      4                      5                      6
                      A                      A                      A
 Frequencies --    302.9017               349.0296               808.5110
 Red. masses --     14.4417                15.8855                15.0348
 Frc consts  --      0.7807                 1.1402                 5.7906
 IR Inten    --      9.0753                33.5010               746.8872

                      7                      8                      9
                      A                      A                      A
 Frequencies --   1010.1369              1483.0842              1852.2387
 Red. masses --     19.0820                15.5045                14.6183
 Frc consts  --     11.4719                20.0928                29.5489
 IR Inten    --     17.1780               963.6977               819.1508

 - Thermochemistry -
 -------------------
 Temperature   298.150 Kelvin.  Pressure   1.00000 Atm.
 Atom     1 has atomic number  7 and mass  14.00307

 Molecular mass:    96.95667 amu.
 Principal axes and moments of inertia in atomic units:
                           1         2         3
     Eigenvalues --   164.56386 824.59249 989.15635
           X            1.00000   0.00162  -0.00002
           Y           -0.00162   1.00000  -0.00003
           Z            0.00002   0.00003   1.00000
 This molecule is an asymmetric top.
 Rotational symmetry number  1.
 Rotational temperatures (Kelvin)      0.52632     0.10504     0.08756
 Rotational constants (GHZ):          10.96681     2.18865     1.82453
 Zero-point vibrational energy      36886.7 (Joules/Mol)
                                    8.81613 (Kcal/Mol)
 Warning -- explicit consideration of   5 degrees of freedom as
           vibrations may cause significant error
 Vibrational temperatures:     83.84   164.49   271.17   435.81   502.18
          (Kelvin)           1163.27  1453.36  2133.83  2664.96

 Zero-point correction=                           0.014049 (Hartree/Particle)
 Thermal correction to Energy=                    0.019883
 Thermal correction to Enthalpy=                  0.020827
 Thermal correction to Gibbs Free Energy=        -0.016638
 Sum of electronic and zero-point Energies=           -738.229173
 Sum of electronic and thermal Energies=              -738.223339
 Sum of electronic and thermal Enthalpies=            -738.222395
 Sum of electronic and thermal Free Energies=         -738.259860

                     E (Thermal)             CV                S
                      KCal/Mol        Cal/Mol-Kelvin    Cal/Mol-Kelvin
 Total                   12.477             16.078             78.853
 Electronic               0.000              0.000              0.000
 Translational            0.889              2.981             39.626
 Rotational               0.889              2.981             26.398
 Vibrational             10.699             10.116             12.829
 Vibration     1          0.596              1.974              4.515
 Vibration     2          0.607              1.938              3.194
 Vibration     3          0.633              1.856              2.243
 Vibration     4          0.694              1.668              1.401
 Vibration     5          0.726              1.577              1.171

                           ! Non-Optimized Parameters !
 Normal termination of Gaussian 16 at Mon Feb 24 02:32:36 2020.
