 Gaussian 16, Revision A.03,
 Gaussian 16:  ES64L-G16RevA.03 25-Dec-2016

 ----------------------------------------
 # opt freq rcis/6-311++g(3df,3pd) scf=qc
 ----------------------------------------

 -------------------
 Title Card Required
 -------------------
 Symbolic Z-matrix:
 Charge =  0 Multiplicity = 1

 SCF Done:  E(RHF) =  -738.262014936     a.u. after   51 cycles
 SCF Done:  E(RHF) =  -738.262573896     a.u. after   58 cycles
 SCF Done:  E(RHF) =  -738.262583624     a.u. after   67 cycles
 SCF Done:  E(RHF) =  -738.262631049     a.u. after   24 cycles
 SCF Done:  E(RHF) =  -738.262645354     a.u. after   20 cycles
 SCF Done:  E(RHF) =  -738.262660316     a.u. after   17 cycles
 SCF Done:  E(RHF) =  -738.262664203     a.u. after   26 cycles
 SCF Done:  E(RHF) =  -738.262667691     a.u. after   17 cycles
 SCF Done:  E(RHF) =  -738.262669510     a.u. after   28 cycles
 SCF Done:  E(RHF) =  -738.262669222     a.u. after   37 cycles
 Optimization completed.
    -- Stationary point found.
 Normal termination of Gaussian 16 at Wed Feb 19 12:57:26 2020.

 ----------------------------------------------------------------------
 #N Geom=AllCheck Guess=TCheck SCRF=Check GenChk RCIS(FC,Read)/6-311++G
 (3df,3pd) Freq
 ----------------------------------------------------------------------

 Structure from the checkpoint file:  "/localscratch/alrebei.28162812.0/Gau-32717.chk"
 -------------------
 Title Card Required
 -------------------
 Charge =  0 Multiplicity = 1

                         Standard orientation:
 ---------------------------------------------------------------------
 Center     Atomic      Atomic             Coordinates (Angstroms)
 Number     Number       Type             X           Y           Z
 ---------------------------------------------------------------------
      1          7           0       -0.010484    1.297588    0.408592
      2          8           0       -2.878889   -0.704153   -0.068801
      3          8           0        0.105769    1.480840   -0.702461
      4          8           0        0.443516    0.102680    0.875672
      5         17           0        1.100601   -0.948120   -0.217378
 ---------------------------------------------------------------------

 SCF Done:  E(RHF) =  -738.262669222     a.u. after    1 cycles

 Excitation energies and oscillator strengths:

 Excited State   1:      Singlet-A      -1.0345 eV    -1198.52 nm  f=-0.0000  <S**2>=0.000
      21 -> 25         0.66483
      21 -> 37         0.13328
 This state for optimization and/or second-order correction.
 Total Energy, E(CIS/TDA) =  -738.300685416
 Copying the excited state density for this state as the 1-particle RhoCI density.

 Excited State   2:      Singlet-A      -1.0151 eV    -1221.34 nm  f=-0.0000  <S**2>=0.000
      20 -> 25         0.66851
      20 -> 37         0.13411

 Excited State   3:      Singlet-A      4.3015 eV  288.24 nm  f=0.0044  <S**2>=0.000
      22 -> 27         0.30372
      22 -> 28        -0.12232
      23 -> 27         0.54420
      23 -> 28        -0.21906

 The electronic state is 1-A.
 Alpha  occ. eigenvalues -- -104.90717 -20.71258 -20.69652 -20.68015 -15.80772
 Alpha  occ. eigenvalues --  -10.62919  -8.09745  -8.09369  -8.09353  -1.67272
 Alpha  occ. eigenvalues --   -1.46663  -1.26781  -1.13295  -0.92456  -0.80559
 Alpha  occ. eigenvalues --   -0.76972  -0.74640  -0.61335  -0.60431  -0.59145
 Alpha  occ. eigenvalues --   -0.59091  -0.49634  -0.47606  -0.46426
 Alpha virt. eigenvalues --   -0.02607   0.06768   0.09026   0.09546   0.12034
 Alpha virt. eigenvalues --    0.12526   0.13744   0.16227   0.17829   0.18577
 Alpha virt. eigenvalues --    0.21453   0.23364   0.24458   0.26690   0.28093

 Mulliken charges:
               1
     1  N    0.518361
     2  O    0.008378
     3  O   -0.327760
     4  O   -0.277754
     5  Cl   0.078775
 Sum of Mulliken charges =   0.00000

 Dipole moment (field-independent basis, Debye):
    X=              0.0990    Y=             -0.3105    Z=             -0.2346  Tot=              0.4016
 Quadrupole moment (field-independent basis, Debye-Ang):
   XX=            -33.0210   YY=            -33.6154   ZZ=            -33.7610
   XY=             -0.4530   XZ=              0.1630   YZ=              0.5980

  Exact polarizability:  30.737  -6.558  42.187  -1.503   0.486  32.765
 Approx polarizability:  28.203  -4.801  36.510  -1.573   0.076  34.701

                      1                      2                      3
                      A                      A                      A
 Frequencies --     18.3257                23.4883                40.2904
 Red. masses --     20.0119                15.9942                15.6784
 Frc consts  --      0.0040                 0.0052                 0.0150
 IR Inten    --      0.0349                 0.0563                 0.0146

                      4                      5                      6
                      A                      A                      A
 Frequencies --    313.3923               355.7226               770.1986
 Red. masses --     20.1527                15.1481                18.7377
 Frc consts  --      1.1662                 1.1294                 6.5490
 IR Inten    --      0.1039                 1.8723                14.5987

                      7                      8                      9
                      A                      A                      A
 Frequencies --    829.1108              1023.0426              2005.8339
 Red. masses --     15.4621                15.2814                14.8700
 Frc consts  --      6.2625                 9.4233                35.2495
 IR Inten    --    234.4534               101.3214               257.3976

 - Thermochemistry -
 -------------------
 Temperature   298.150 Kelvin.  Pressure   1.00000 Atm.
 Atom     1 has atomic number  7 and mass  14.00307

 Molecular mass:    96.95667 amu.
 Principal axes and moments of inertia in atomic units:
                           1         2         3
     Eigenvalues --   437.05454 723.04963 987.10642
           X            0.99992   0.01265   0.00149
           Y           -0.01264   0.99992  -0.00274
           Z           -0.00152   0.00272   1.00000
 This molecule is an asymmetric top.
 Rotational symmetry number  1.
 Warning -- assumption of classical behavior for rotation
           may cause significant error
 Rotational temperatures (Kelvin)      0.19818     0.11979     0.08775
 Rotational constants (GHZ):           4.12933     2.49601     1.82831
 Zero-point vibrational energy      32176.0 (Joules/Mol)
                                    7.69025 (Kcal/Mol)
 Warning -- explicit consideration of   5 degrees of freedom as
           vibrations may cause significant error
 Vibrational temperatures:     26.37    33.79    57.97   450.90   511.81
          (Kelvin)           1108.14  1192.91  1471.93  2885.95

 Zero-point correction=                           0.012255 (Hartree/Particle)
 Thermal correction to Energy=                    0.018689
 Thermal correction to Enthalpy=                  0.019633
 Thermal correction to Gibbs Free Energy=        -0.022283
 Sum of electronic and zero-point Energies=           -738.288430
 Sum of electronic and thermal Energies=              -738.281997
 Sum of electronic and thermal Enthalpies=            -738.281053
 Sum of electronic and thermal Free Energies=         -738.322968

                     E (Thermal)             CV                S
                      KCal/Mol        Cal/Mol-Kelvin    Cal/Mol-Kelvin
 Total                   11.727             16.795             88.219
 Electronic               0.000              0.000              0.000
 Translational            0.889              2.981             39.626
 Rotational               0.889              2.981             27.236
 Vibrational              9.950             10.833             21.357
 Vibration     1          0.593              1.986              6.808
 Vibration     2          0.593              1.985              6.315
 Vibration     3          0.594              1.981              5.245
 Vibration     4          0.701              1.648              1.344
 Vibration     5          0.731              1.564              1.141

                           ! Non-Optimized Parameters !
 Normal termination of Gaussian 16 at Wed Feb 19 13:03:23 2020.
