 Gaussian 16, Revision A.03,
 Gaussian 16:  ES64L-G16RevA.03 25-Dec-2016

 ---------------------------------------------------------------
 # opt=(calcfc,ts,noeigentest) freq cis/6-311++g(3df,3pd) scf=qc
 ---------------------------------------------------------------

 -------------------
 Title Card Required
 -------------------
 Symbolic Z-matrix:
 Charge =  0 Multiplicity = 1

 SCF Done:  E(RHF) =  -738.313580987     a.u. after    8 cycles
 SCF Done:  E(RHF) =  -738.319879148     a.u. after   15 cycles
 SCF Done:  E(RHF) =  -738.320083793     a.u. after    3 cycles
 Optimization completed.
    -- Stationary point found.
 Normal termination of Gaussian 16 at Mon Feb 24 02:21:47 2020.

 ----------------------------------------------------------------------
 #N Geom=AllCheck Guess=TCheck SCRF=Check GenChk RCIS(FC,Read)/6-311++G
 (3df,3pd) Freq
 ----------------------------------------------------------------------

 Structure from the checkpoint file:  "/localscratch/alrebei.28376399.0/Gau-21471.chk"
 -------------------
 Title Card Required
 -------------------
 Charge =  0 Multiplicity = 1

                         Standard orientation:
 ---------------------------------------------------------------------
 Center     Atomic      Atomic             Coordinates (Angstroms)
 Number     Number       Type             X           Y           Z
 ---------------------------------------------------------------------
      1          7           0       -1.317805    0.039006    0.000007
      2          8           0       -1.514043    1.172523    0.000007
      3          8           0       -1.980596   -0.900903   -0.000001
      4          8           0        0.349170   -0.390988    0.000024
      5         17           0        2.022846    0.040112   -0.000017
 ---------------------------------------------------------------------

 SCF Done:  E(RHF) =  -738.320083793     a.u. after    1 cycles

 Excitation energies and oscillator strengths:

 Excited State   1:      Singlet-A      2.7612 eV  449.02 nm  f=0.0001  <S**2>=0.000
      19 -> 25        -0.16240
      23 -> 25         0.66319
 This state for optimization and/or second-order correction.
 Total Energy, E(CIS/TDA) =  -738.218611865
 Copying the excited state density for this state as the 1-particle RhoCI density.

 Excited State   2:      Singlet-A      3.4269 eV  361.80 nm  f=0.0396  <S**2>=0.000
      21 -> 25        -0.11763
      24 -> 25         0.65704
      24 -> 35         0.11494

 Excited State   3:      Singlet-A      5.6147 eV  220.82 nm  f=0.0000  <S**2>=0.000
      19 -> 25        -0.49303
      23 -> 28         0.15124
      23 -> 29        -0.16555
      23 -> 31        -0.21804
      23 -> 34         0.23867
      23 -> 35        -0.24434

 The electronic state is 1-A.
 Alpha  occ. eigenvalues -- -104.90669 -20.72575 -20.71341 -20.63845 -15.98717
 Alpha  occ. eigenvalues --  -10.62581  -8.09375  -8.09029  -8.09011  -1.75925
 Alpha  occ. eigenvalues --   -1.56441  -1.34918  -1.07265  -0.94459  -0.84921
 Alpha  occ. eigenvalues --   -0.84530  -0.83676  -0.61013  -0.59205  -0.56758
 Alpha  occ. eigenvalues --   -0.56604  -0.55874  -0.44838  -0.43746
 Alpha virt. eigenvalues --   -0.03353   0.06257   0.08127   0.10401   0.11701
 Alpha virt. eigenvalues --    0.12077   0.12358   0.14950   0.17604   0.19590
 Alpha virt. eigenvalues --    0.21422   0.23907   0.26327   0.28740   0.31427

 Mulliken charges:
               1
     1  N    1.296821
     2  O   -0.523016
     3  O   -0.527568
     4  O   -0.304210
     5  Cl   0.057973
 Sum of Mulliken charges =   0.00000

 Dipole moment (field-independent basis, Debye):
    X=             -0.8021    Y=              0.5437    Z=             -0.0000  Tot=              0.9690
 Quadrupole moment (field-independent basis, Debye-Ang):
   XX=            -30.2256   YY=            -35.8671   ZZ=            -33.1004
   XY=              0.2431   XZ=             -0.0001   YZ=              0.0000

  Exact polarizability: 105.489   2.477  38.543  -0.001  -0.000  24.729
 Approx polarizability:  64.415   2.586  40.707  -0.000  -0.000  25.120

 ******    1 imaginary frequencies (negative Signs) ******

                      1                      2                      3
                      A                      A                      A
 Frequencies --   -850.1300                44.6186               114.1041
 Red. masses --     16.2288                17.0671                18.4155
 Frc consts  --      6.9105                 0.0200                 0.1413
 IR Inten    --     95.4995                 0.4651                 5.9834

                      4                      5                      6
                      A                      A                      A
 Frequencies --    356.2869               468.2213               606.7303
 Red. masses --     19.4805                17.2211                14.4336
 Frc consts  --      1.4570                 2.2244                 3.1305
 IR Inten    --     26.1693                 0.2713                20.6978

                      7                      8                      9
                      A                      A                      A
 Frequencies --    853.7696              1508.4569              1933.8458
 Red. masses --     15.1672                15.4944                14.5990
 Frc consts  --      6.5138                20.7726                32.1674
 IR Inten    --    510.2175               840.3021               843.6801

 - Thermochemistry -
 -------------------
 Temperature   298.150 Kelvin.  Pressure   1.00000 Atm.
 Atom     1 has atomic number  7 and mass  14.00307

 Molecular mass:    96.95667 amu.
 Principal axes and moments of inertia in atomic units:
                           1         2         3
     Eigenvalues --   133.89555 959.641271093.53682
           X            1.00000  -0.00034   0.00001
           Y            0.00034   1.00000   0.00000
           Z           -0.00001  -0.00000   1.00000
 This molecule is an asymmetric top.
 Rotational symmetry number  1.
 Rotational temperatures (Kelvin)      0.64688     0.09026     0.07921
 Rotational constants (GHZ):          13.47872     1.88064     1.65037
    1 imaginary frequencies ignored.
 Zero-point vibrational energy      35206.3 (Joules/Mol)
                                    8.41451 (Kcal/Mol)
 Warning -- explicit consideration of   5 degrees of freedom as
           vibrations may cause significant error
 Vibrational temperatures:     64.20   164.17   512.62   673.67   872.95
          (Kelvin)           1228.38  2170.33  2782.37

 Zero-point correction=                           0.013409 (Hartree/Particle)
 Thermal correction to Energy=                    0.018625
 Thermal correction to Enthalpy=                  0.019569
 Thermal correction to Gibbs Free Energy=        -0.016926
 Sum of electronic and zero-point Energies=           -738.205202
 Sum of electronic and thermal Energies=              -738.199987
 Sum of electronic and thermal Enthalpies=            -738.199042
 Sum of electronic and thermal Free Energies=         -738.235537

                     E (Thermal)             CV                S
                      KCal/Mol        Cal/Mol-Kelvin    Cal/Mol-Kelvin
 Total                   11.687             14.434             76.810
 Electronic               0.000              0.000              0.000
 Translational            0.889              2.981             39.626
 Rotational               0.889              2.981             26.444
 Vibrational              9.910              8.472             10.741
 Vibration     1          0.595              1.980              5.043
 Vibration     2          0.607              1.938              3.198
 Vibration     3          0.732              1.562              1.138
 Vibration     4          0.825              1.321              0.743
 Vibration     5          0.965              1.018              0.438

 Optimization completed.
    -- Stationary point found.
 Normal termination of Gaussian 16 at Mon Feb 24 02:27:56 2020.
