 Gaussian 16, Revision A.03,
 Gaussian 16:  ES64L-G16RevA.03 25-Dec-2016

 ----------------------------------------
 # opt freq rcis/6-311++g(3df,3pd) scf=qc
 ----------------------------------------

 -------------------
 Title Card Required
 -------------------
 Symbolic Z-matrix:
 Charge =  0 Multiplicity = 1

 SCF Done:  E(RHF) =  -738.305572014     a.u. after    9 cycles
 SCF Done:  E(RHF) =  -738.305569669     a.u. after   16 cycles
 SCF Done:  E(RHF) =  -738.304847627     a.u. after   10 cycles
 SCF Done:  E(RHF) =  -738.304043972     a.u. after    3 cycles
 SCF Done:  E(RHF) =  -738.304040719     a.u. after    3 cycles
 SCF Done:  E(RHF) =  -738.303982882     a.u. after    3 cycles
 Optimization completed.
    -- Stationary point found.
 Normal termination of Gaussian 16 at Sun Feb 23 01:27:54 2020.

 ----------------------------------------------------------------------
 #N Geom=AllCheck Guess=TCheck SCRF=Check GenChk RCIS(FC,Read)/6-311++G
 (3df,3pd) Freq
 ----------------------------------------------------------------------

 Structure from the checkpoint file:  "/localscratch/alrebei.28335334.0/Gau-29435.chk"
 -------------------
 Title Card Required
 -------------------
 Charge =  0 Multiplicity = 1

                         Standard orientation:
 ---------------------------------------------------------------------
 Center     Atomic      Atomic             Coordinates (Angstroms)
 Number     Number       Type             X           Y           Z
 ---------------------------------------------------------------------
      1          7           0       -1.249535    0.049274   -0.000028
      2          8           0       -1.176594    1.207092   -0.000022
      3          8           0       -2.136105   -0.691585   -0.000006
      4          8           0        0.705341   -0.935830   -0.000038
      5         17           0        1.741506    0.177510    0.000042
 ---------------------------------------------------------------------

 SCF Done:  E(RHF) =  -738.303982882     a.u. after    1 cycles

 Excitation energies and oscillator strengths:

 Excited State   1:      Singlet-A      1.6534 eV  749.88 nm  f=0.0000  <S**2>=0.000
      18 -> 25        -0.21627
      23 -> 25         0.66420
 This state for optimization and/or second-order correction.
 Total Energy, E(CIS/TDA) =  -738.243221946
 Copying the excited state density for this state as the 1-particle RhoCI density.

 Excited State   2:      Singlet-A      4.3634 eV  284.14 nm  f=0.8376  <S**2>=0.000
      24 -> 25        -0.67145

 Excited State   3:      Singlet-A      4.7868 eV  259.01 nm  f=0.0002  <S**2>=0.000
      20 -> 26        -0.12224
      22 -> 25         0.45849
      24 -> 26        -0.51313

 The electronic state is 1-A.
 Alpha  occ. eigenvalues -- -104.90970 -20.71992 -20.71447 -20.66768 -15.94099
 Alpha  occ. eigenvalues --  -10.63146  -8.09987  -8.09678  -8.09587  -1.73514
 Alpha  occ. eigenvalues --   -1.54308  -1.44269  -1.02477  -0.94482  -0.84081
 Alpha  occ. eigenvalues --   -0.82370  -0.82027  -0.65264  -0.64832  -0.60080
 Alpha  occ. eigenvalues --   -0.57198  -0.56294  -0.42898  -0.38327
 Alpha virt. eigenvalues --   -0.07010   0.07077   0.08463   0.09178   0.11264
 Alpha virt. eigenvalues --    0.11907   0.13819   0.15369   0.17792   0.21833
 Alpha virt. eigenvalues --    0.23927   0.24278   0.25973   0.27858   0.30712

 Mulliken charges:
               1
     1  N    1.107266
     2  O   -0.497683
     3  O   -0.487286
     4  O   -0.231896
     5  Cl   0.109599
 Sum of Mulliken charges =   0.00000

 Dipole moment (field-independent basis, Debye):
    X=             -0.4812    Y=              0.8877    Z=              0.0000  Tot=              1.0098
 Quadrupole moment (field-independent basis, Debye-Ang):
   XX=            -32.3590   YY=            -35.7111   ZZ=            -33.0971
   XY=              0.5612   XZ=              0.0002   YZ=              0.0000

  Exact polarizability:  96.149  -4.042  41.882   0.001   0.000  24.565
 Approx polarizability:  93.788  -4.564  48.087   0.001   0.000  25.094

                      1                      2                      3
                      A                      A                      A
 Frequencies --     59.0333               114.2336               188.2798
 Red. masses --     17.5796                19.4826                18.0131
 Frc consts  --      0.0361                 0.1498                 0.3762
 IR Inten    --      1.0044                 0.4484                 0.6971

                      4                      5                      6
                      A                      A                      A
 Frequencies --    301.1911               349.0264               807.8235
 Red. masses --     14.4418                15.8859                15.0337
 Frc consts  --      0.7719                 1.1402                 5.7803
 IR Inten    --      9.0828                34.0300               747.6725

                      7                      8                      9
                      A                      A                      A
 Frequencies --   1009.4295              1483.0570              1853.5738
 Red. masses --     19.0818                15.5059                14.6181
 Frc consts  --     11.4557                20.0939                29.5911
 IR Inten    --     16.7624               963.1175               818.5576

 - Thermochemistry -
 -------------------
 Temperature   298.150 Kelvin.  Pressure   1.00000 Atm.
 Atom     1 has atomic number  7 and mass  14.00307

 Molecular mass:    96.95667 amu.
 Principal axes and moments of inertia in atomic units:
                           1         2         3
     Eigenvalues --   164.62237 824.82230 989.44467
           X            1.00000  -0.00162  -0.00001
           Y            0.00162   1.00000  -0.00001
           Z            0.00001   0.00001   1.00000
 This molecule is an asymmetric top.
 Rotational symmetry number  1.
 Rotational temperatures (Kelvin)      0.52614     0.10501     0.08754
 Rotational constants (GHZ):          10.96292     2.18804     1.82399
 Zero-point vibrational energy      36878.8 (Joules/Mol)
                                    8.81424 (Kcal/Mol)
 Warning -- explicit consideration of   5 degrees of freedom as
           vibrations may cause significant error
 Vibrational temperatures:     84.94   164.36   270.89   433.35   502.17
          (Kelvin)           1162.28  1452.34  2133.79  2666.88

 Zero-point correction=                           0.014046 (Hartree/Particle)
 Thermal correction to Energy=                    0.019881
 Thermal correction to Enthalpy=                  0.020825
 Thermal correction to Gibbs Free Energy=        -0.016635
 Sum of electronic and zero-point Energies=           -738.229176
 Sum of electronic and thermal Energies=              -738.223341
 Sum of electronic and thermal Enthalpies=            -738.222397
 Sum of electronic and thermal Free Energies=         -738.259857

                     E (Thermal)             CV                S
                      KCal/Mol        Cal/Mol-Kelvin    Cal/Mol-Kelvin
 Total                   12.476             16.083             78.842
 Electronic               0.000              0.000              0.000
 Translational            0.889              2.981             39.626
 Rotational               0.889              2.981             26.399
 Vibrational             10.698             10.121             12.817
 Vibration     1          0.596              1.974              4.489
 Vibration     2          0.607              1.938              3.196
 Vibration     3          0.633              1.856              2.245
 Vibration     4          0.693              1.671              1.410
 Vibration     5          0.726              1.577              1.171

                           ! Non-Optimized Parameters !
 Normal termination of Gaussian 16 at Sun Feb 23 01:34:05 2020.
