 Gaussian 16, Revision A.03,
 Gaussian 16:  ES64L-G16RevA.03 25-Dec-2016

 ---------------------------------------
 # opt freq cis/6-311++g(3df,3pd) scf=qc
 ---------------------------------------

 -------------------
 Title Card Required
 -------------------
 Symbolic Z-matrix:
 Charge =  0 Multiplicity = 1

 SCF Done:  E(RHF) =  -738.321424588     a.u. after    8 cycles
 SCF Done:  E(RHF) =  -738.319524376     a.u. after   11 cycles
 SCF Done:  E(RHF) =  -738.321136879     a.u. after    7 cycles
 SCF Done:  E(RHF) =  -738.319844198     a.u. after    3 cycles
 SCF Done:  E(RHF) =  -738.320105666     a.u. after    3 cycles
 Optimization completed.
    -- Stationary point found.
 Normal termination of Gaussian 16 at Mon Feb 24 02:24:20 2020.

 ----------------------------------------------------------------------
 #N Geom=AllCheck Guess=TCheck SCRF=Check GenChk RCIS(FC,Read)/6-311++G
 (3df,3pd) Freq
 ----------------------------------------------------------------------

 Structure from the checkpoint file:  "/localscratch/alrebei.28376409.0/Gau-27864.chk"
 -------------------
 Title Card Required
 -------------------
 Charge =  0 Multiplicity = 1

                         Standard orientation:
 ---------------------------------------------------------------------
 Center     Atomic      Atomic             Coordinates (Angstroms)
 Number     Number       Type             X           Y           Z
 ---------------------------------------------------------------------
      1          7           0       -0.825420    0.000011   -0.136924
      2          8           0       -1.532704    1.012761   -0.104331
      3          8           0       -1.534429   -1.011550   -0.105532
      4          8           0        0.247425   -0.001518    0.683561
      5         17           0        1.666800    0.000140   -0.166536
 ---------------------------------------------------------------------

 SCF Done:  E(RHF) =  -738.320105666     a.u. after    1 cycles

 Excitation energies and oscillator strengths:

 Excited State   1:      Singlet-A      2.6831 eV  462.09 nm  f=0.0008  <S**2>=0.000
      22 -> 25        -0.42507
      23 -> 25         0.50885
      24 -> 25         0.17162
 This state for optimization and/or second-order correction.
 Total Energy, E(CIS/TDA) =  -738.221503313
 Copying the excited state density for this state as the 1-particle RhoCI density.

 Excited State   2:      Singlet-A      4.7899 eV  258.85 nm  f=0.1329  <S**2>=0.000
      18 -> 25         0.12560
      23 -> 25        -0.15219
      24 -> 25         0.62807

 Excited State   3:      Singlet-A      4.9119 eV  252.42 nm  f=0.0078  <S**2>=0.000
      20 -> 25         0.55218
      21 -> 25        -0.39707

 The electronic state is 1-A.
 Alpha  occ. eigenvalues -- -104.95347 -20.75493 -20.64075 -20.64067 -15.92933
 Alpha  occ. eigenvalues --  -10.67495  -8.14330  -8.13914  -8.13885  -1.69588
 Alpha  occ. eigenvalues --   -1.50416  -1.40685  -1.16140  -0.95218  -0.81795
 Alpha  occ. eigenvalues --   -0.79910  -0.79003  -0.67694  -0.65041  -0.59075
 Alpha  occ. eigenvalues --   -0.52611  -0.52194  -0.49490  -0.46576
 Alpha virt. eigenvalues --   -0.01476   0.03222   0.07685   0.10362   0.11201
 Alpha virt. eigenvalues --    0.13766   0.15208   0.16237   0.17516   0.23742
 Alpha virt. eigenvalues --    0.25000   0.25291   0.28520   0.28682   0.31800

 Mulliken charges:
               1
     1  N    1.521964
     2  O   -0.589005
     3  O   -0.588667
     4  O   -0.460691
     5  Cl   0.116399
 Sum of Mulliken charges =   0.00000

 Dipole moment (field-independent basis, Debye):
    X=              3.1787    Y=             -0.0010    Z=             -0.2424  Tot=              3.1879
 Quadrupole moment (field-independent basis, Debye-Ang):
   XX=            -34.0986   YY=            -37.2373   ZZ=            -32.7115
   XY=              0.0016   XZ=             -1.7609   YZ=             -0.0020

  Exact polarizability:  48.012   0.024  55.659  -1.685   0.016  26.433
 Approx polarizability:  39.467   0.013  39.589  -1.929   0.004  27.846

                      1                      2                      3
                      A                      A                      A
 Frequencies --     11.5139               298.5977               530.8129
 Red. masses --     17.5473                19.5061                17.1427
 Frc consts  --      0.0014                 1.0247                 2.8459
 IR Inten    --      0.0057                 2.2101                 8.4498

                      4                      5                      6
                      A                      A                      A
 Frequencies --    551.5058               677.0628               920.2437
 Red. masses --     15.7707                15.9328                16.5933
 Frc consts  --      2.8262                 4.3033                 8.2792
 IR Inten    --      6.3966                 0.2019                 9.3525

                      7                      8                      9
                      A                      A                      A
 Frequencies --   1023.4901              1464.8164              1513.7760
 Red. masses --     15.7387                14.6316                14.8552
 Frc consts  --      9.7138                18.4973                20.0564
 IR Inten    --     80.6094                46.4273               101.9545

 - Thermochemistry -
 -------------------
 Temperature   298.150 Kelvin.  Pressure   1.00000 Atm.
 Atom     1 has atomic number  7 and mass  14.00307

 Molecular mass:    96.95667 amu.
 Principal axes and moments of inertia in atomic units:
                           1         2         3
     Eigenvalues --   149.37729 685.41706 770.10365
           X            1.00000  -0.00000   0.00154
           Y            0.00000   1.00000   0.00000
           Z           -0.00154  -0.00000   1.00000
 This molecule is an asymmetric top.
 Rotational symmetry number  1.
 Rotational temperatures (Kelvin)      0.57983     0.12637     0.11247
 Rotational constants (GHZ):          12.08176     2.63306     2.34350
 Zero-point vibrational energy      41820.4 (Joules/Mol)
                                    9.99531 (Kcal/Mol)
 Warning -- explicit consideration of   4 degrees of freedom as
           vibrations may cause significant error
 Vibrational temperatures:     16.57   429.62   763.72   793.49   974.14
          (Kelvin)           1324.03  1472.57  2107.54  2177.99

 Zero-point correction=                           0.015929 (Hartree/Particle)
 Thermal correction to Energy=                    0.020708
 Thermal correction to Enthalpy=                  0.021653
 Thermal correction to Gibbs Free Energy=        -0.014624
 Sum of electronic and zero-point Energies=           -738.205575
 Sum of electronic and thermal Energies=              -738.200795
 Sum of electronic and thermal Enthalpies=            -738.199851
 Sum of electronic and thermal Free Energies=         -738.236127

                     E (Thermal)             CV                S
                      KCal/Mol        Cal/Mol-Kelvin    Cal/Mol-Kelvin
 Total                   12.995             13.798             76.351
 Electronic               0.000              0.000              0.000
 Translational            0.889              2.981             39.626
 Rotational               0.889              2.981             25.870
 Vibrational             11.217              7.836             10.855
 Vibration     1          0.593              1.987              7.731
 Vibration     2          0.692              1.676              1.425
 Vibration     3          0.886              1.182              0.585
 Vibration     4          0.907              1.136              0.541

                           ! Non-Optimized Parameters !
 Normal termination of Gaussian 16 at Mon Feb 24 02:30:57 2020.
