 Gaussian 16, Revision A.03,
 Gaussian 16:  ES64L-G16RevA.03 25-Dec-2016

 ---------------------------------------------------------
 # opt=(calcfc,ts,noeigentest) freq rcis/6-311++g(3df,3pd)
 ---------------------------------------------------------

 -------------------
 Title Card Required
 -------------------
 Symbolic Z-matrix:
 Charge =  0 Multiplicity = 1

 SCF Done:  E(RHF) =  -738.270694921     A.U. after   21 cycles
 SCF Done:  E(RHF) =  -738.271904330     A.U. after   19 cycles
 SCF Done:  E(RHF) =  -738.271877417     A.U. after   12 cycles
 Optimization completed.
    -- Stationary point found.
 Normal termination of Gaussian 16 at Wed Feb 19 12:34:30 2020.

 ----------------------------------------------------------------------
 #N Geom=AllCheck Guess=TCheck SCRF=Check GenChk RCIS(FC,Read)/6-311++G
 (3df,3pd) Freq
 ----------------------------------------------------------------------

 Structure from the checkpoint file:  "/localscratch/alrebei.28162808.0/Gau-30190.chk"
 -------------------
 Title Card Required
 -------------------
 Charge =  0 Multiplicity = 1

                         Standard orientation:
 ---------------------------------------------------------------------
 Center     Atomic      Atomic             Coordinates (Angstroms)
 Number     Number       Type             X           Y           Z
 ---------------------------------------------------------------------
      1          7           0       -0.934915    0.088262    0.401289
      2          8           0       -1.774863   -0.725313   -0.493610
      3          8           0       -0.910928    1.175106   -0.043793
      4          8           0        0.232678   -0.510137    0.669210
      5         17           0        1.539371   -0.007946   -0.227264
 ---------------------------------------------------------------------

 SCF Done:  E(RHF) =  -738.271877417     A.U. after    1 cycles

 Excitation energies and oscillator strengths:

 Excited State   1:      Singlet-A      1.8526 eV  669.24 nm  f=0.0005  <S**2>=0.000
      22 -> 25         0.41402
      22 -> 26         0.10547
      23 -> 25        -0.32646
      24 -> 25         0.34105
 This state for optimization and/or second-order correction.
 Total Energy, E(CIS/TDA) =  -738.203794937
 Copying the excited state density for this state as the 1-particle RhoCI density.

 Excited State   2:      Singlet-A      2.5939 eV  477.99 nm  f=0.0153  <S**2>=0.000
      20 -> 25         0.16507
      22 -> 25         0.10476
      23 -> 25        -0.37925
      24 -> 25        -0.45568
      24 -> 45         0.10003

 Excited State   3:      Singlet-A      3.6803 eV  336.89 nm  f=0.0224  <S**2>=0.000
      18 -> 25        -0.10199
      20 -> 25         0.50765
      20 -> 26         0.14423
      21 -> 25         0.23925
      22 -> 25        -0.17691
      23 -> 25        -0.11023
      24 -> 25         0.19266

 The electronic state is 1-A.
 Alpha  occ. eigenvalues -- -104.94893 -20.73768 -20.70957 -20.60750 -15.90909
 Alpha  occ. eigenvalues --  -10.66985  -8.13811  -8.13396  -8.13373  -1.69855
 Alpha  occ. eigenvalues --   -1.50351  -1.30696  -1.16344  -0.95123  -0.83464
 Alpha  occ. eigenvalues --   -0.79611  -0.78583  -0.65237  -0.64034  -0.56709
 Alpha  occ. eigenvalues --   -0.52549  -0.50674  -0.48771  -0.47780
 Alpha virt. eigenvalues --   -0.04742   0.05391   0.08325   0.11057   0.12218
 Alpha virt. eigenvalues --    0.13019   0.15835   0.16476   0.16720   0.22780
 Alpha virt. eigenvalues --    0.23407   0.25972   0.26624   0.29507   0.31578

 Mulliken charges:
               1
     1  N    0.897684
     2  O   -0.428940
     3  O   -0.282667
     4  O   -0.356879
     5  Cl   0.170802
 Sum of Mulliken charges =  -0.00000

 Dipole moment (field-independent basis, Debye):
    X=              2.7376    Y=              1.0744    Z=              0.8635  Tot=              3.0650
 Quadrupole moment (field-independent basis, Debye-Ang):
   XX=            -35.1182   YY=            -35.8752   ZZ=            -32.2595
   XY=             -1.4835   XZ=             -3.2548   YZ=             -0.0203

  Exact polarizability:  52.622   8.517  44.059   2.042   3.941  30.231
 Approx polarizability:  38.375   2.714  37.275   0.310  -0.162  31.992

 ******    1 imaginary frequencies (negative Signs) ******

                      1                      2                      3
                      A                      A                      A
 Frequencies --  -1172.3737               114.3664               293.1808
 Red. masses --     14.9912                17.9379                20.5873
 Frc consts  --     12.1400                 0.1382                 1.0426
 IR Inten    --     76.2406                 0.7596                 1.6115

                      4                      5                      6
                      A                      A                      A
 Frequencies --    391.7264               619.1874               770.6716
 Red. masses --     16.0168                15.4835                18.3607
 Frc consts  --      1.4481                 3.4976                 6.4251
 IR Inten    --     10.4850                 3.4132                 3.8411

                      7                      8                      9
                      A                      A                      A
 Frequencies --    904.1029              1043.3499              1678.2550
 Red. masses --     15.8856                14.7818                14.9213
 Frc consts  --      7.6505                 9.4807                24.7612
 IR Inten    --     18.6987               161.7599               153.8701

 - Thermochemistry -
 -------------------
 Temperature   298.150 Kelvin.  Pressure   1.00000 Atm.
 Atom     1 has atomic number  7 and mass  14.00307

 Molecular mass:    96.95667 amu.
 Principal axes and moments of inertia in atomic units:
                           1         2         3
     Eigenvalues --   178.28950 624.06822 694.14879
           X            1.00000   0.00010   0.00237
           Y           -0.00010   1.00000  -0.00010
           Z           -0.00237   0.00010   1.00000
 This molecule is an asymmetric top.
 Rotational symmetry number  1.
 Rotational temperatures (Kelvin)      0.48580     0.13879     0.12478
 Rotational constants (GHZ):          10.12253     2.89190     2.59993
    1 imaginary frequencies ignored.
 Zero-point vibrational energy      34780.5 (Joules/Mol)
                                    8.31273 (Kcal/Mol)
 Warning -- explicit consideration of   4 degrees of freedom as
           vibrations may cause significant error
 Vibrational temperatures:    164.55   421.82   563.61   890.87  1108.82
          (Kelvin)           1300.80  1501.15  2414.63

 Zero-point correction=                           0.013247 (Hartree/Particle)
 Thermal correction to Energy=                    0.017857
 Thermal correction to Enthalpy=                  0.018801
 Thermal correction to Gibbs Free Energy=        -0.015403
 Sum of electronic and zero-point Energies=           -738.190548
 Sum of electronic and thermal Energies=              -738.185938
 Sum of electronic and thermal Enthalpies=            -738.184994
 Sum of electronic and thermal Free Energies=         -738.219198

                     E (Thermal)             CV                S
                      KCal/Mol        Cal/Mol-Kelvin    Cal/Mol-Kelvin
 Total                   11.205             13.631             71.989
 Electronic               0.000              0.000              0.000
 Translational            0.889              2.981             39.626
 Rotational               0.889              2.981             25.849
 Vibrational              9.428              7.670              6.514
 Vibration     1          0.607              1.938              3.193
 Vibration     2          0.688              1.686              1.456
 Vibration     3          0.759              1.488              0.994
 Vibration     4          0.979              0.991              0.418

 Optimization completed.
    -- Stationary point found.
 Normal termination of Gaussian 16 at Wed Feb 19 12:41:13 2020.
