 Gaussian 16, Revision A.03,
 Gaussian 16:  ES64L-G16RevA.03 25-Dec-2016

 ---------------------------------------
 # opt freq cis/6-311++g(3df,3pd) scf=qc
 ---------------------------------------

 -------------------
 Title Card Required
 -------------------
 Symbolic Z-matrix:
 Charge =  0 Multiplicity = 1

 SCF Done:  E(RHF) =  -738.347136157     a.u. after    8 cycles
 SCF Done:  E(RHF) =  -738.349152584     a.u. after    3 cycles
 SCF Done:  E(RHF) =  -738.349832859     a.u. after    3 cycles
 SCF Done:  E(RHF) =  -738.349916078     a.u. after    3 cycles
 SCF Done:  E(RHF) =  -738.349792138     a.u. after    3 cycles
 Optimization completed.
    -- Stationary point found.
 Normal termination of Gaussian 16 at Mon Feb 24 02:20:58 2020.

 ----------------------------------------------------------------------
 #N Geom=AllCheck Guess=TCheck SCRF=Check GenChk RCIS(FC,Read)/6-311++G
 (3df,3pd) Freq
 ----------------------------------------------------------------------

 Structure from the checkpoint file:  "/localscratch/alrebei.28376401.0/Gau-14109.chk"
 -------------------
 Title Card Required
 -------------------
 Charge =  0 Multiplicity = 1

                         Standard orientation:
 ---------------------------------------------------------------------
 Center     Atomic      Atomic             Coordinates (Angstroms)
 Number     Number       Type             X           Y           Z
 ---------------------------------------------------------------------
      1          7           0        1.024760    0.000008    0.051792
      2          8           0        1.427252   -1.057733   -0.255427
      3          8           0        1.427093    1.057848   -0.255296
      4          8           0       -0.023082   -0.000126    0.865806
      5         17           0       -1.754319    0.000002   -0.188425
 ---------------------------------------------------------------------

 SCF Done:  E(RHF) =  -738.349792138     a.u. after    1 cycles

 Excitation energies and oscillator strengths:

 Excited State   1:      Singlet-A      2.3490 eV  527.82 nm  f=0.0000  <S**2>=0.000
      18 -> 25        -0.11701
      21 -> 25         0.46417
      23 -> 25         0.46517
      24 -> 25         0.16330
 This state for optimization and/or second-order correction.
 Total Energy, E(CIS/TDA) =  -738.263467939
 Copying the excited state density for this state as the 1-particle RhoCI density.

 Excited State   2:      Singlet-A      2.9745 eV  416.83 nm  f=0.0007  <S**2>=0.000
      19 -> 25        -0.12590
      20 -> 25         0.24089
      22 -> 25         0.63768

 Excited State   3:      Singlet-A      4.0216 eV  308.30 nm  f=0.0000  <S**2>=0.000
      18 -> 25         0.36717
      21 -> 25         0.44724
      23 -> 25        -0.33434

 The electronic state is 1-A.
 Alpha  occ. eigenvalues -- -104.97004 -20.72947 -20.63738 -20.63732 -15.93288
 Alpha  occ. eigenvalues --  -10.68746  -8.15500  -8.15129  -8.15119  -1.72974
 Alpha  occ. eigenvalues --   -1.48562  -1.44647  -1.14205  -0.92223  -0.82463
 Alpha  occ. eigenvalues --   -0.81435  -0.79542  -0.64519  -0.57950  -0.56869
 Alpha  occ. eigenvalues --   -0.54266  -0.53928  -0.51482  -0.49477
 Alpha virt. eigenvalues --   -0.08772   0.07671   0.09504   0.11129   0.11412
 Alpha virt. eigenvalues --    0.13096   0.14901   0.15563   0.16581   0.23796
 Alpha virt. eigenvalues --    0.25063   0.26682   0.26817   0.29246   0.31620

 Mulliken charges:
               1
     1  N    1.651200
     2  O   -0.679510
     3  O   -0.679506
     4  O   -0.467577
     5  Cl   0.175394
 Sum of Mulliken charges =  -0.00000

 Dipole moment (field-independent basis, Debye):
    X=             -2.8697    Y=             -0.0000    Z=             -0.0278  Tot=              2.8698
 Quadrupole moment (field-independent basis, Debye-Ang):
   XX=            -31.1812   YY=            -37.2484   ZZ=            -33.3193
   XY=             -0.0001   XZ=              3.1344   YZ=             -0.0001

  Exact polarizability: 104.431  -0.002  37.872  16.280  -0.000  33.054
 Approx polarizability:  48.197  -0.002  38.440   6.132   0.000  31.221

                      1                      2                      3
                      A                      A                      A
 Frequencies --     62.8356               163.3494               480.7324
 Red. masses --     17.3142                20.4422                19.3739
 Frc consts  --      0.0403                 0.3214                 2.6380
 IR Inten    --      0.2949                 2.3973                 3.5256

                      4                      5                      6
                      A                      A                      A
 Frequencies --    675.0116               786.9484               936.1571
 Red. masses --     15.7703                15.9411                14.4349
 Frc consts  --      4.2336                 5.8165                 7.4535
 IR Inten    --      0.4334                38.9583                 5.8642

                      7                      8                      9
                      A                      A                      A
 Frequencies --   1086.0877              1505.8425              1827.4582
 Red. masses --     15.2683                15.1291                14.5961
 Frc consts  --     10.6113                20.2125                28.7198
 IR Inten    --    336.8910               959.4153               745.5406

 - Thermochemistry -
 -------------------
 Temperature   298.150 Kelvin.  Pressure   1.00000 Atm.
 Atom     1 has atomic number  7 and mass  14.00307

 Molecular mass:    96.95667 amu.
 Principal axes and moments of inertia in atomic units:
                           1         2         3
     Eigenvalues --   182.65422 724.27346 797.26530
           X            1.00000   0.00000  -0.00186
           Y           -0.00000   1.00000   0.00000
           Z            0.00186  -0.00000   1.00000
 This molecule is an asymmetric top.
 Rotational symmetry number  1.
 Rotational temperatures (Kelvin)      0.47420     0.11959     0.10864
 Rotational constants (GHZ):           9.88064     2.49180     2.26366
 Zero-point vibrational energy      45006.0 (Joules/Mol)
                                   10.75670 (Kcal/Mol)
 Warning -- explicit consideration of   3 degrees of freedom as
           vibrations may cause significant error
 Vibrational temperatures:     90.41   235.02   691.67   971.19  1132.24
          (Kelvin)           1346.92  1562.64  2166.57  2629.30

 Zero-point correction=                           0.017142 (Hartree/Particle)
 Thermal correction to Energy=                    0.021927
 Thermal correction to Enthalpy=                  0.022871
 Thermal correction to Gibbs Free Energy=        -0.012349
 Sum of electronic and zero-point Energies=           -738.246326
 Sum of electronic and thermal Energies=              -738.241541
 Sum of electronic and thermal Enthalpies=            -738.240597
 Sum of electronic and thermal Free Energies=         -738.275817

                     E (Thermal)             CV                S
                      KCal/Mol        Cal/Mol-Kelvin    Cal/Mol-Kelvin
 Total                   13.759             13.505             74.126
 Electronic               0.000              0.000              0.000
 Translational            0.889              2.981             39.626
 Rotational               0.889              2.981             26.159
 Vibrational             11.982              7.543              8.341
 Vibration     1          0.597              1.972              4.366
 Vibration     2          0.623              1.887              2.511
 Vibration     3          0.837              1.293              0.708

 Optimization completed.
    -- Stationary point found.
 Normal termination of Gaussian 16 at Mon Feb 24 02:27:41 2020.
