 Gaussian 16, Revision A.03,
 Gaussian 16:  ES64L-G16RevA.03 25-Dec-2016

 ----------------------------------------
 # opt freq rcis/6-311++g(3df,3pd) scf=qc
 ----------------------------------------

 -------------------
 Title Card Required
 -------------------
 Symbolic Z-matrix:
 Charge =  0 Multiplicity = 1

 SCF Done:  E(RHF) =  -738.320440677     a.u. after    8 cycles
 SCF Done:  E(RHF) =  -738.323856449     a.u. after   12 cycles
 SCF Done:  E(RHF) =  -738.325881269     a.u. after    7 cycles
 SCF Done:  E(RHF) =  -738.324969559     a.u. after    3 cycles
 SCF Done:  E(RHF) =  -738.324914514     a.u. after    3 cycles
 Optimization completed.
    -- Stationary point found.
 Normal termination of Gaussian 16 at Wed Feb 19 12:35:30 2020.

 ----------------------------------------------------------------------
 #N Geom=AllCheck Guess=TCheck SCRF=Check GenChk RCIS(FC,Read)/6-311++G
 (3df,3pd) Freq
 ----------------------------------------------------------------------

 Structure from the checkpoint file:  "/localscratch/alrebei.28162816.0/Gau-309.chk"
 -------------------
 Title Card Required
 -------------------
 Charge =  0 Multiplicity = 1

                         Standard orientation:
 ---------------------------------------------------------------------
 Center     Atomic      Atomic             Coordinates (Angstroms)
 Number     Number       Type             X           Y           Z
 ---------------------------------------------------------------------
      1          7           0       -0.948467    0.000023    0.292058
      2          8           0       -1.324468   -1.012232   -0.303669
      3          8           0       -1.324669    1.012041   -0.303940
      4          8           0        0.247816    0.000228    0.862509
      5         17           0        1.520579   -0.000027   -0.240212
 ---------------------------------------------------------------------

 SCF Done:  E(RHF) =  -738.324914514     a.u. after    1 cycles

 Excitation energies and oscillator strengths:

 Excited State   1:      Singlet-A      2.7151 eV  456.65 nm  f=0.0011  <S**2>=0.000
      22 -> 25        -0.39120
      22 -> 26         0.16386
      23 -> 25         0.42807
      23 -> 26        -0.13928
      24 -> 25        -0.23291
 This state for optimization and/or second-order correction.
 Total Energy, E(CIS/TDA) =  -738.225137003
 Copying the excited state density for this state as the 1-particle RhoCI density.

 Excited State   2:      Singlet-A      4.1219 eV  300.80 nm  f=0.0000  <S**2>=0.000
      22 -> 25         0.46132
      22 -> 26         0.10869
      22 -> 30         0.11425
      23 -> 25         0.37946
      23 -> 26         0.15390
      23 -> 27         0.10171
      23 -> 30         0.13918
      23 -> 31        -0.10412
      24 -> 25        -0.13565

 Excited State   3:      Singlet-A      4.6432 eV  267.02 nm  f=0.0009  <S**2>=0.000
      20 -> 25        -0.27338
      20 -> 26         0.17216
      20 -> 27         0.10554
      20 -> 30         0.11193
      21 -> 25         0.58163

 The electronic state is 1-A.
 Alpha  occ. eigenvalues -- -104.95743 -20.73995 -20.63900 -20.63893 -15.93142
 Alpha  occ. eigenvalues --  -10.67779  -8.14601  -8.14177  -8.14152  -1.70061
 Alpha  occ. eigenvalues --   -1.49538  -1.40925  -1.16776  -0.94047  -0.82053
 Alpha  occ. eigenvalues --   -0.80062  -0.78977  -0.66693  -0.64430  -0.58574
 Alpha  occ. eigenvalues --   -0.52800  -0.51474  -0.50247  -0.46664
 Alpha virt. eigenvalues --   -0.04021   0.06223   0.08604   0.11371   0.12348
 Alpha virt. eigenvalues --    0.13322   0.15674   0.15964   0.16383   0.22862
 Alpha virt. eigenvalues --    0.25088   0.25191   0.29055   0.30482   0.31233

 Mulliken charges:
               1
     1  N    1.210821
     2  O   -0.487167
     3  O   -0.487177
     4  O   -0.424104
     5  Cl   0.187627
 Sum of Mulliken charges =  -0.00000

 Dipole moment (field-independent basis, Debye):
    X=              2.5362    Y=              0.0002    Z=              0.6169  Tot=              2.6102
 Quadrupole moment (field-independent basis, Debye-Ang):
   XX=            -32.7567   YY=            -37.2592   ZZ=            -32.4874
   XY=             -0.0005   XZ=             -3.5393   YZ=              0.0005

  Exact polarizability:  46.088  -0.003  54.129  -1.832  -0.003  28.972
 Approx polarizability:  35.197  -0.002  39.226  -1.125  -0.001  31.315

                      1                      2                      3
                      A                      A                      A
 Frequencies --    131.3601               244.9150               577.3429
 Red. masses --     17.6058                20.9642                15.7492
 Frc consts  --      0.1790                 0.7409                 3.0930
 IR Inten    --      0.0333                 1.7728                 8.8710

                      4                      5                      6
                      A                      A                      A
 Frequencies --    582.6482               711.4879               813.7182
 Red. masses --     15.7181                18.3786                15.2611
 Frc consts  --      3.1439                 5.4815                 5.9537
 IR Inten    --      3.1595                 4.4491                 5.1819

                      7                      8                      9
                      A                      A                      A
 Frequencies --   1011.1616              1471.7420              1533.7760
 Red. masses --     15.6876                14.6423                14.8044
 Frc consts  --      9.4503                18.6862                20.5194
 IR Inten    --     17.5682                39.6829               112.0764

 - Thermochemistry -
 -------------------
 Temperature   298.150 Kelvin.  Pressure   1.00000 Atm.
 Atom     1 has atomic number  7 and mass  14.00307

 Molecular mass:    96.95667 amu.
 Principal axes and moments of inertia in atomic units:
                           1         2         3
     Eigenvalues --   181.52882 602.07785 654.60395
           X            1.00000   0.00000   0.00269
           Y           -0.00000   1.00000  -0.00000
           Z           -0.00269   0.00000   1.00000
 This molecule is an asymmetric top.
 Rotational symmetry number  1.
 Rotational temperatures (Kelvin)      0.47714     0.14386     0.13232
 Rotational constants (GHZ):           9.94190     2.99752     2.75700
 Zero-point vibrational energy      42336.8 (Joules/Mol)
                                   10.11873 (Kcal/Mol)
 Warning -- explicit consideration of   4 degrees of freedom as
           vibrations may cause significant error
 Vibrational temperatures:    189.00   352.38   830.67   838.30  1023.67
          (Kelvin)           1170.76  1454.84  2117.51  2206.76

 Zero-point correction=                           0.016125 (Hartree/Particle)
 Thermal correction to Energy=                    0.020698
 Thermal correction to Enthalpy=                  0.021642
 Thermal correction to Gibbs Free Energy=        -0.012408
 Sum of electronic and zero-point Energies=           -738.209012
 Sum of electronic and thermal Energies=              -738.204439
 Sum of electronic and thermal Enthalpies=            -738.203495
 Sum of electronic and thermal Free Energies=         -738.237545

                     E (Thermal)             CV                S
                      KCal/Mol        Cal/Mol-Kelvin    Cal/Mol-Kelvin
 Total                   12.988             13.754             71.665
 Electronic               0.000              0.000              0.000
 Translational            0.889              2.981             39.626
 Rotational               0.889              2.981             25.773
 Vibrational             11.211              7.792              6.266
 Vibration     1          0.612              1.922              2.926
 Vibration     2          0.660              1.771              1.767
 Vibration     3          0.934              1.080              0.490
 Vibration     4          0.939              1.069              0.480

 Optimization completed.
    -- Stationary point found.
 Normal termination of Gaussian 16 at Wed Feb 19 12:42:33 2020.
