 Gaussian 16, Revision A.03,
 Gaussian 16:  ES64L-G16RevA.03 25-Dec-2016

 ----------------------------------------
 # opt freq rcis/6-311++g(3df,3pd) scf=qc
 ----------------------------------------

 -------------------
 Title Card Required
 -------------------
 Symbolic Z-matrix:
 Charge =  0 Multiplicity = 1

 SCF Done:  E(RHF) =  -738.315599306     a.u. after    8 cycles
 SCF Done:  E(RHF) =  -738.318046691     a.u. after   11 cycles
 SCF Done:  E(RHF) =  -738.321544801     a.u. after    8 cycles
 SCF Done:  E(RHF) =  -738.320099908     a.u. after    3 cycles
 Optimization completed.
    -- Stationary point found.
 Normal termination of Gaussian 16 at Sun Feb 23 01:31:44 2020.

 ----------------------------------------------------------------------
 #N Geom=AllCheck Guess=TCheck SCRF=Check GenChk RCIS(FC,Read)/6-311++G
 (3df,3pd) Freq
 ----------------------------------------------------------------------

 Structure from the checkpoint file:  "/localscratch/alrebei.28335335.0/Gau-28565.chk"
 -------------------
 Title Card Required
 -------------------
 Charge =  0 Multiplicity = 1

                         Standard orientation:
 ---------------------------------------------------------------------
 Center     Atomic      Atomic             Coordinates (Angstroms)
 Number     Number       Type             X           Y           Z
 ---------------------------------------------------------------------
      1          7           0       -0.825678    0.000073   -0.137294
      2          8           0       -1.533432    1.012269   -0.104410
      3          8           0       -1.533809   -1.011825   -0.105089
      4          8           0        0.247286   -0.000843    0.683215
      5         17           0        1.667023    0.000158   -0.166392
 ---------------------------------------------------------------------

 SCF Done:  E(RHF) =  -738.320099908     a.u. after    1 cycles

 Excitation energies and oscillator strengths:

 Excited State   1:      Singlet-A      2.6830 eV  462.12 nm  f=0.0008  <S**2>=0.000
      22 -> 25        -0.42528
      23 -> 25         0.50868
      24 -> 25         0.17161
 This state for optimization and/or second-order correction.
 Total Energy, E(CIS/TDA) =  -738.221503200
 Copying the excited state density for this state as the 1-particle RhoCI density.

 Excited State   2:      Singlet-A      4.7893 eV  258.88 nm  f=0.1328  <S**2>=0.000
      18 -> 25         0.12557
      23 -> 25        -0.15204
      24 -> 25         0.62800

 Excited State   3:      Singlet-A      4.9117 eV  252.43 nm  f=0.0078  <S**2>=0.000
      20 -> 25         0.55216
      21 -> 25        -0.39710

 The electronic state is 1-A.
 Alpha  occ. eigenvalues -- -104.95345 -20.75487 -20.64073 -20.64066 -15.92932
 Alpha  occ. eigenvalues --  -10.67492  -8.14327  -8.13911  -8.13882  -1.69598
 Alpha  occ. eigenvalues --   -1.50412  -1.40698  -1.16136  -0.95212  -0.81798
 Alpha  occ. eigenvalues --   -0.79914  -0.79001  -0.67696  -0.65042  -0.59075
 Alpha  occ. eigenvalues --   -0.52607  -0.52196  -0.49488  -0.46578
 Alpha virt. eigenvalues --   -0.01476   0.03223   0.07686   0.10362   0.11201
 Alpha virt. eigenvalues --    0.13765   0.15208   0.16236   0.17514   0.23743
 Alpha virt. eigenvalues --    0.24999   0.25290   0.28520   0.28685   0.31796

 Mulliken charges:
               1
     1  N    1.522731
     2  O   -0.589272
     3  O   -0.588979
     4  O   -0.460836
     5  Cl   0.116357
 Sum of Mulliken charges =  -0.00000

 Dipole moment (field-independent basis, Debye):
    X=              3.1774    Y=             -0.0004    Z=             -0.2438  Tot=              3.1867
 Quadrupole moment (field-independent basis, Debye-Ang):
   XX=            -34.0982   YY=            -37.2367   ZZ=            -32.7105
   XY=              0.0017   XZ=             -1.7588   YZ=             -0.0015

  Exact polarizability:  48.021   0.006  55.644  -1.686   0.009  26.432
 Approx polarizability:  39.467   0.004  39.584  -1.931   0.002  27.845

                      1                      2                      3
                      A                      A                      A
 Frequencies --      1.5849               298.4449               530.6831
 Red. masses --     17.5470                19.5030                17.1462
 Frc consts  --      0.0000                 1.0235                 2.8450
 IR Inten    --      0.0055                 2.2063                 8.4549

                      4                      5                      6
                      A                      A                      A
 Frequencies --    551.5111               677.1224               920.2440
 Red. masses --     15.7704                15.9341                16.5890
 Frc consts  --      2.8262                 4.3044                 8.2771
 IR Inten    --      6.3944                 0.2014                 9.4076

                      7                      8                      9
                      A                      A                      A
 Frequencies --   1023.4128              1465.7075              1514.2584
 Red. masses --     15.7386                14.6319                14.8564
 Frc consts  --      9.7122                18.5202                20.0708
 IR Inten    --     80.8763                46.2880               101.8521

 - Thermochemistry -
 -------------------
 Temperature   298.150 Kelvin.  Pressure   1.00000 Atm.
 Atom     1 has atomic number  7 and mass  14.00307

 Molecular mass:    96.95667 amu.
 Principal axes and moments of inertia in atomic units:
                           1         2         3
     Eigenvalues --   149.31995 685.51348 770.20722
           X            1.00000  -0.00000   0.00154
           Y            0.00000   1.00000   0.00000
           Z           -0.00154  -0.00000   1.00000
 This molecule is an asymmetric top.
 Rotational symmetry number  1.
 Rotational temperatures (Kelvin)      0.58006     0.12635     0.11246
 Rotational constants (GHZ):          12.08640     2.63269     2.34319
 Zero-point vibrational energy      41767.4 (Joules/Mol)
                                    9.98266 (Kcal/Mol)
 Warning -- explicit consideration of   4 degrees of freedom as
           vibrations may cause significant error
 Vibrational temperatures:      2.28   429.40   763.53   793.50   974.23
          (Kelvin)           1324.03  1472.46  2108.83  2178.68

 Zero-point correction=                           0.015908 (Hartree/Particle)
 Thermal correction to Energy=                    0.020711
 Thermal correction to Enthalpy=                  0.021655
 Thermal correction to Gibbs Free Energy=        -0.016494
 Sum of electronic and zero-point Energies=           -738.205595
 Sum of electronic and thermal Energies=              -738.200792
 Sum of electronic and thermal Enthalpies=            -738.199848
 Sum of electronic and thermal Free Energies=         -738.237998

                     E (Thermal)             CV                S
                      KCal/Mol        Cal/Mol-Kelvin    Cal/Mol-Kelvin
 Total                   12.996             13.798             80.292
 Electronic               0.000              0.000              0.000
 Translational            0.889              2.981             39.626
 Rotational               0.889              2.981             25.869
 Vibrational             11.219              7.837             14.797
 Vibration     1          0.592              1.987             11.671
 Vibration     2          0.692              1.677              1.426
 Vibration     3          0.886              1.182              0.586
 Vibration     4          0.907              1.136              0.541

                           ! Non-Optimized Parameters !
 Normal termination of Gaussian 16 at Sun Feb 23 01:43:17 2020.
