 Gaussian 16, Revision A.03,
 Gaussian 16:  ES64L-G16RevA.03 25-Dec-2016

 -----------------------------------------------------------------
 # opt=(calcall,ts,noeigentest) freq rcis/6-311++g(3df,3pd) scf=qc
 -----------------------------------------------------------------

 -------------------
 Title Card Required
 -------------------
 Symbolic Z-matrix:
 Charge =  0 Multiplicity = 1

 SCF Done:  E(RHF) =  -738.312110637     a.u. after    8 cycles
 SCF Done:  E(RHF) =  -738.317832470     a.u. after   14 cycles
 SCF Done:  E(RHF) =  -738.317947585     a.u. after    3 cycles
 Optimization completed.
    -- Stationary point found.
 ******    1 imaginary frequencies (negative Signs) ******
    1 imaginary frequencies ignored.
 Normal termination of Gaussian 16 at Sun Feb 23 01:36:35 2020.

 ----------------------------------------------------------------------
 #N Geom=AllCheck Guess=TCheck SCRF=Check GenChk RCIS(FC,Read)/6-311++G
 (3df,3pd) Freq
 ----------------------------------------------------------------------

 Structure from the checkpoint file:  "/localscratch/alrebei.28335333.0/Gau-17715.chk"
 -------------------
 Title Card Required
 -------------------
 Charge =  0 Multiplicity = 1

                         Standard orientation:
 ---------------------------------------------------------------------
 Center     Atomic      Atomic             Coordinates (Angstroms)
 Number     Number       Type             X           Y           Z
 ---------------------------------------------------------------------
      1          7           0       -0.999287   -0.000016   -0.218763
      2          8           0       -1.564997    1.039152   -0.061218
      3          8           0       -1.564116   -1.039650   -0.060808
      4          8           0        0.365013    0.000562    0.682064
      5         17           0        1.712224   -0.000023   -0.173468
 ---------------------------------------------------------------------

 SCF Done:  E(RHF) =  -738.317947585     a.u. after    1 cycles

 Excitation energies and oscillator strengths:

 Excited State   1:      Singlet-A      3.2193 eV  385.13 nm  f=0.0002  <S**2>=0.000
      21 -> 25        -0.48350
      23 -> 25         0.44366
 This state for optimization and/or second-order correction.
 Total Energy, E(CIS/TDA) =  -738.199641712
 Copying the excited state density for this state as the 1-particle RhoCI density.

 Excited State   2:      Singlet-A      4.1077 eV  301.84 nm  f=0.0126  <S**2>=0.000
      18 -> 25        -0.21411
      21 -> 25         0.36388
      22 -> 25         0.26799
      23 -> 25         0.37688
      23 -> 26        -0.12904
      23 -> 30        -0.16320

 Excited State   3:      Singlet-A      4.2323 eV  292.95 nm  f=0.0982  <S**2>=0.000
      20 -> 25        -0.27873
      24 -> 25         0.60737

 The electronic state is 1-A.
 Alpha  occ. eigenvalues -- -104.92526 -20.72530 -20.66975 -20.66968 -15.93518
 Alpha  occ. eigenvalues --  -10.64749  -8.11600  -8.11211  -8.11170  -1.69537
 Alpha  occ. eigenvalues --   -1.46951  -1.46630  -1.09466  -0.93760  -0.82160
 Alpha  occ. eigenvalues --   -0.79190  -0.78592  -0.68509  -0.66096  -0.59233
 Alpha  occ. eigenvalues --   -0.54786  -0.50402  -0.46789  -0.46652
 Alpha virt. eigenvalues --   -0.03807   0.06523   0.08516   0.10762   0.11659
 Alpha virt. eigenvalues --    0.12471   0.14541   0.15751   0.17105   0.18398
 Alpha virt. eigenvalues --    0.23928   0.24849   0.26473   0.29384   0.30117

 Mulliken charges:
               1
     1  N    1.333083
     2  O   -0.574181
     3  O   -0.574209
     4  O   -0.257072
     5  Cl   0.072378
 Sum of Mulliken charges =  -0.00000

 Dipole moment (field-independent basis, Debye):
    X=              1.5754    Y=              0.0004    Z=             -0.7358  Tot=              1.7388
 Quadrupole moment (field-independent basis, Debye-Ang):
   XX=            -33.8778   YY=            -36.6838   ZZ=            -32.5209
   XY=             -0.0006   XZ=             -0.8723   YZ=              0.0004

  Exact polarizability: 131.427   0.013  52.331   5.017  -0.002  28.121
 Approx polarizability:  46.643  -0.004  40.201   0.670  -0.001  29.707

 ******    1 imaginary frequencies (negative Signs) ******

                      1                      2                      3
                      A                      A                      A
 Frequencies --  -1449.0191                76.7230               236.0198
 Red. masses --     14.7700                17.5617                20.0633
 Frc consts  --     18.2717                 0.0609                 0.6585
 IR Inten    --   3362.3014                 2.4127                 0.5812

                      4                      5                      6
                      A                      A                      A
 Frequencies --    272.5852               462.7855               760.8382
 Red. masses --     15.7644                17.0201                15.2692
 Frc consts  --      0.6901                 2.1477                 5.2077
 IR Inten    --     15.4102                 7.9240                 4.3581

                      7                      8                      9
                      A                      A                      A
 Frequencies --    907.2963              1350.4597              1472.3810
 Red. masses --     17.4054                15.6838                14.7244
 Frc consts  --      8.4418                16.8525                18.8073
 IR Inten    --     91.6362                40.8692                30.5622

 - Thermochemistry -
 -------------------
 Temperature   298.150 Kelvin.  Pressure   1.00000 Atm.
 Atom     1 has atomic number  7 and mass  14.00307

 Molecular mass:    96.95667 amu.
 Principal axes and moments of inertia in atomic units:
                           1         2         3
     Eigenvalues --   156.56310 736.32532 826.59678
           X            1.00000   0.00000   0.00153
           Y           -0.00000   1.00000  -0.00000
           Z           -0.00153   0.00000   1.00000
 This molecule is an asymmetric top.
 Rotational symmetry number  1.
 Rotational temperatures (Kelvin)      0.55322     0.11763     0.10478
 Rotational constants (GHZ):          11.52725     2.45101     2.18334
    1 imaginary frequencies ignored.
 Zero-point vibrational energy      33131.1 (Joules/Mol)
                                    7.91852 (Kcal/Mol)
 Warning -- explicit consideration of   4 degrees of freedom as
           vibrations may cause significant error
 Vibrational temperatures:    110.39   339.58   392.19   665.85  1094.68
          (Kelvin)           1305.40  1943.01  2118.43

 Zero-point correction=                           0.012619 (Hartree/Particle)
 Thermal correction to Energy=                    0.017604
 Thermal correction to Enthalpy=                  0.018549
 Thermal correction to Gibbs Free Energy=        -0.016725
 Sum of electronic and zero-point Energies=           -738.187023
 Sum of electronic and thermal Energies=              -738.182037
 Sum of electronic and thermal Enthalpies=            -738.181093
 Sum of electronic and thermal Free Energies=         -738.216367

                     E (Thermal)             CV                S
                      KCal/Mol        Cal/Mol-Kelvin    Cal/Mol-Kelvin
 Total                   11.047             14.184             74.240
 Electronic               0.000              0.000              0.000
 Translational            0.889              2.981             39.626
 Rotational               0.889              2.981             26.058
 Vibrational              9.269              8.222              8.556
 Vibration     1          0.599              1.965              3.973
 Vibration     2          0.655              1.786              1.833
 Vibration     3          0.676              1.724              1.580
 Vibration     4          0.820              1.333              0.758

 Optimization completed.
    -- Stationary point found.
 Normal termination of Gaussian 16 at Sun Feb 23 01:43:23 2020.
