 Gaussian 16, Revision A.03,
 Gaussian 16:  ES64L-G16RevA.03 25-Dec-2016

 ---------------------------------------------------------------
 # opt=(calcfc,ts,noeigentest) freq cis/6-311++g(3df,3pd) scf=qc
 ---------------------------------------------------------------

 -------------------
 Title Card Required
 -------------------
 Symbolic Z-matrix:
 Charge =  0 Multiplicity = 1

 SCF Done:  E(RHF) =  -738.353765969     a.u. after    8 cycles
 SCF Done:  E(RHF) =  -738.361995318     a.u. after   20 cycles
 SCF Done:  E(RHF) =  -738.361651601     a.u. after    3 cycles
 Optimization completed.
    -- Stationary point found.
 Normal termination of Gaussian 16 at Mon Feb 24 02:21:52 2020.

 ----------------------------------------------------------------------
 #N Geom=AllCheck Guess=TCheck SCRF=Check GenChk RCIS(FC,Read)/6-311++G
 (3df,3pd) Freq
 ----------------------------------------------------------------------

 Structure from the checkpoint file:  "/localscratch/alrebei.28376396.0/Gau-28058.chk"
 -------------------
 Title Card Required
 -------------------
 Charge =  0 Multiplicity = 1

                         Standard orientation:
 ---------------------------------------------------------------------
 Center     Atomic      Atomic             Coordinates (Angstroms)
 Number     Number       Type             X           Y           Z
 ---------------------------------------------------------------------
      1          7           0        0.867082   -0.000012   -0.011744
      2          8           0        1.492065   -1.040769   -0.165922
      3          8           0        1.492335    1.040568   -0.166147
      4          8           0       -0.205260    0.000261    0.736079
      5         17           0       -1.664864   -0.000023   -0.185286
 ---------------------------------------------------------------------

 SCF Done:  E(RHF) =  -738.361651601     a.u. after    1 cycles

 Excitation energies and oscillator strengths:

 Excited State   1:      Singlet-A      3.9843 eV  311.18 nm  f=0.0002  <S**2>=0.000
      22 -> 26         0.28144
      22 -> 30        -0.10192
      23 -> 25         0.49733
      23 -> 26        -0.34087
      23 -> 27         0.10085
 This state for optimization and/or second-order correction.
 Total Energy, E(CIS/TDA) =  -738.215231783
 Copying the excited state density for this state as the 1-particle RhoCI density.

 Excited State   2:      Singlet-A      4.3109 eV  287.61 nm  f=0.0000  <S**2>=0.000
      22 -> 25         0.53097
      22 -> 30        -0.10476
      23 -> 25         0.23779
      23 -> 26         0.28671
      23 -> 30        -0.14846
      24 -> 25         0.13964

 Excited State   3:      Singlet-A      5.0972 eV  243.24 nm  f=0.0026  <S**2>=0.000
      20 -> 25         0.12442
      20 -> 26         0.13447
      21 -> 25         0.63476
      21 -> 26         0.12603
      21 -> 30        -0.14691

 The electronic state is 1-A.
 Alpha  occ. eigenvalues -- -104.96470 -20.75087 -20.63738 -20.63732 -15.93437
 Alpha  occ. eigenvalues --  -10.68468  -8.15275  -8.14869  -8.14846  -1.70635
 Alpha  occ. eigenvalues --   -1.49783  -1.42513  -1.16878  -0.94532  -0.82001
 Alpha  occ. eigenvalues --   -0.80619  -0.79548  -0.66822  -0.63621  -0.58595
 Alpha  occ. eigenvalues --   -0.53623  -0.52876  -0.50289  -0.47517
 Alpha virt. eigenvalues --   -0.01027   0.04656   0.07477   0.10503   0.11181
 Alpha virt. eigenvalues --    0.13562   0.15006   0.15943   0.17263   0.23702
 Alpha virt. eigenvalues --    0.25890   0.26150   0.27880   0.28478   0.32188

 Mulliken charges:
               1
     1  N    1.515615
     2  O   -0.611757
     3  O   -0.611743
     4  O   -0.452147
     5  Cl   0.160032
 Sum of Mulliken charges =  -0.00000

 Dipole moment (field-independent basis, Debye):
    X=             -3.3835    Y=              0.0000    Z=             -0.0211  Tot=              3.3835
 Quadrupole moment (field-independent basis, Debye-Ang):
   XX=            -33.3753   YY=            -37.2998   ZZ=            -32.9088
   XY=              0.0001   XZ=              2.3140   YZ=              0.0004

  Exact polarizability:  62.389   0.005  57.723   1.658  -0.003  27.300
 Approx polarizability:  39.703   0.002  38.937   1.823  -0.000  27.914

 ******    1 imaginary frequencies (negative Signs) ******

                      1                      2                      3
                      A                      A                      A
 Frequencies --  -1619.1375               112.3488               262.1638
 Red. masses --     15.8863                17.5307                20.2899
 Frc consts  --     24.5381                 0.1304                 0.8216
 IR Inten    --    375.3824                 0.0135                 5.2163

                      4                      5                      6
                      A                      A                      A
 Frequencies --    490.3745               564.8512               699.3195
 Red. masses --     16.0549                15.7433                16.6243
 Frc consts  --      2.2746                 2.9595                 4.7901
 IR Inten    --      2.3118                18.0930                 3.7479

                      7                      8                      9
                      A                      A                      A
 Frequencies --    998.8485              1420.7933              1664.4712
 Red. masses --     15.9391                15.1059                14.6244
 Frc consts  --      9.3695                17.9663                23.8716
 IR Inten    --     17.1651                 7.5436                94.0321

 - Thermochemistry -
 -------------------
 Temperature   298.150 Kelvin.  Pressure   1.00000 Atm.
 Atom     1 has atomic number  7 and mass  14.00307

 Molecular mass:    96.95667 amu.
 Principal axes and moments of inertia in atomic units:
                           1         2         3
     Eigenvalues --   162.10645 678.79177 764.12239
           X            1.00000  -0.00000  -0.00177
           Y            0.00000   1.00000  -0.00000
           Z            0.00177   0.00000   1.00000
 This molecule is an asymmetric top.
 Rotational symmetry number  1.
 Rotational temperatures (Kelvin)      0.53430     0.12760     0.11335
 Rotational constants (GHZ):          11.13306     2.65876     2.36185
    1 imaginary frequencies ignored.
 Zero-point vibrational energy      37163.0 (Joules/Mol)
                                    8.88217 (Kcal/Mol)
 Warning -- explicit consideration of   4 degrees of freedom as
           vibrations may cause significant error
 Vibrational temperatures:    161.64   377.20   705.54   812.69  1006.16
          (Kelvin)           1437.12  2044.20  2394.80

 Zero-point correction=                           0.014155 (Hartree/Particle)
 Thermal correction to Energy=                    0.018739
 Thermal correction to Enthalpy=                  0.019683
 Thermal correction to Gibbs Free Energy=        -0.014552
 Sum of electronic and zero-point Energies=           -738.201077
 Sum of electronic and thermal Energies=              -738.196493
 Sum of electronic and thermal Enthalpies=            -738.195549
 Sum of electronic and thermal Free Energies=         -738.229784

                     E (Thermal)             CV                S
                      KCal/Mol        Cal/Mol-Kelvin    Cal/Mol-Kelvin
 Total                   11.759             13.371             72.055
 Electronic               0.000              0.000              0.000
 Translational            0.889              2.981             39.626
 Rotational               0.889              2.981             25.933
 Vibrational              9.981              7.409              6.495
 Vibration     1          0.607              1.939              3.228
 Vibration     2          0.669              1.742              1.647
 Vibration     3          0.846              1.271              0.683
 Vibration     4          0.921              1.107              0.514

 Optimization completed.
    -- Stationary point found.
 Normal termination of Gaussian 16 at Mon Feb 24 02:28:30 2020.
